TITLE = "Bivariate normal distribution density"
VARIABLES = "y", "T"
ZONE T = "Numerical", J = 12, F = Point
0 100
0.0555556 68.3646
0.111111 42.2651
0.166667 24.4448
0.222222 14.2568
0.277778 9.50299
0.333333 7.60108
0.388889 6.77866
0.444444 5.99389
0.5 4.69048
0.555556 2.65264
0.611111 0
