TITLE = "Bivariate normal distribution density"
VARIABLES = "x", "T"
ZONE T = "Numerical", J = 12, F = Point
0 80
0.0555556 57.6436
0.111111 38.7843
0.166667 25.6583
0.222222 17.9959
0.277778 14.5272
0.333333 13.5762
0.388889 14.2568
0.444444 16.4329
0.5 19.997
0.555556 24.7876
0.611111 30
