TITLE = "Bivariate normal distribution density"
VARIABLES = "y", "T"
ZONE T = "Numerical", J = 12, F = Point
0 100
0.0555556 70.0992
0.111111 45.1552
0.166667 27.956
0.222222 17.9959
0.277778 13.3235
0.333333 11.4216
0.388889 10.5177
0.444444 9.50503
0.5 7.58059
0.555556 4.38723
0.611111 0
