TITLE = "Bivariate normal distribution density"
VARIABLES = "x", "T"
ZONE T = "Numerical", J = 12, F = Point
0 80
0.0555556 54.1744
0.111111 33.0041
0.166667 18.6361
0.222222 10.5177
0.277778 6.88617
0.333333 5.93522
0.388889 6.77866
0.444444 9.4106
0.5 14.2168
0.555556 21.3184
0.611111 30
