TITLE = "Bivariate normal distribution density"
VARIABLES = "x", "y", "T"
ZONE T = "Numerical", I = 500, J = 500, F = Point
0 0 1000
0 1 1000
0 2 1000
0 3 1000
0 4 1000
0 5 1000
0 6 1000
0 7 1000
0 8 1000
0 9 1000
0 10 1000
0 11 1000
0 12 1000
0 13 1000
0 14 1000
0 15 1000
0 16 1000
0 17 1000
0 18 1000
0 19 1000
0 20 1000
0 21 1000
0 22 1000
0 23 1000
0 24 1000
0 25 1000
0 26 1000
0 27 1000
0 28 1000
0 29 1000
0 30 1000
0 31 1000
0 32 1000
0 33 1000
0 34 1000
0 35 1000
0 36 1000
0 37 1000
0 38 1000
0 39 1000
0 40 1000
0 41 1000
0 42 1000
0 43 1000
0 44 1000
0 45 1000
0 46 1000
0 47 1000
0 48 1000
0 49 1000
0 50 1000
0 51 1000
0 52 1000
0 53 1000
0 54 1000
0 55 1000
0 56 1000
0 57 1000
0 58 1000
0 59 1000
0 60 1000
0 61 1000
0 62 1000
0 63 1000
0 64 1000
0 65 1000
0 66 1000
0 67 1000
0 68 1000
0 69 1000
0 70 1000
0 71 1000
0 72 1000
0 73 1000
0 74 1000
0 75 1000
0 76 1000
0 77 1000
0 78 1000
0 79 1000
0 80 1000
0 81 1000
0 82 1000
0 83 1000
0 84 1000
0 85 1000
0 86 1000
0 87 1000
0 88 1000
0 89 1000
0 90 1000
0 91 1000
0 92 1000
0 93 1000
0 94 1000
0 95 1000
0 96 1000
0 97 1000
0 98 1000
0 99 1000
0 100 1000
0 101 1000
0 102 1000
0 103 1000
0 104 1000
0 105 1000
0 106 1000
0 107 1000
0 108 1000
0 109 1000
0 110 1000
0 111 1000
0 112 1000
0 113 1000
0 114 1000
0 115 1000
0 116 1000
0 117 1000
0 118 1000
0 119 1000
0 120 1000
0 121 1000
0 122 1000
0 123 1000
0 124 1000
0 125 1000
0 126 1000
0 127 1000
0 128 1000
0 129 1000
0 130 1000
0 131 1000
0 132 1000
0 133 1000
0 134 1000
0 135 1000
0 136 1000
0 137 1000
0 138 1000
0 139 1000
0 140 1000
0 141 1000
0 142 1000
0 143 1000
0 144 1000
0 145 1000
0 146 1000
0 147 1000
0 148 1000
0 149 1000
0 150 1000
0 151 1000
0 152 1000
0 153 1000
0 154 1000
0 155 1000
0 156 1000
0 157 1000
0 158 1000
0 159 1000
0 160 1000
0 161 1000
0 162 1000
0 163 1000
0 164 1000
0 165 1000
0 166 1000
0 167 1000
0 168 1000
0 169 1000
0 170 1000
0 171 1000
0 172 1000
0 173 1000
0 174 1000
0 175 1000
0 176 1000
0 177 1000
0 178 1000
0 179 1000
0 180 1000
0 181 1000
0 182 1000
0 183 1000
0 184 1000
0 185 1000
0 186 1000
0 187 1000
0 188 1000
0 189 1000
0 190 1000
0 191 1000
0 192 1000
0 193 1000
0 194 1000
0 195 1000
0 196 1000
0 197 1000
0 198 1000
0 199 1000
0 200 1000
0 201 1000
0 202 1000
0 203 1000
0 204 1000
0 205 1000
0 206 1000
0 207 1000
0 208 1000
0 209 1000
0 210 1000
0 211 1000
0 212 1000
0 213 1000
0 214 1000
0 215 1000
0 216 1000
0 217 1000
0 218 1000
0 219 1000
0 220 1000
0 221 1000
0 222 1000
0 223 1000
0 224 1000
0 225 1000
0 226 1000
0 227 1000
0 228 1000
0 229 1000
0 230 1000
0 231 1000
0 232 1000
0 233 1000
0 234 1000
0 235 1000
0 236 1000
0 237 1000
0 238 1000
0 239 1000
0 240 1000
0 241 1000
0 242 1000
0 243 1000
0 244 1000
0 245 1000
0 246 1000
0 247 1000
0 248 1000
0 249 1000
0 250 1000
0 251 1000
0 252 1000
0 253 1000
0 254 1000
0 255 1000
0 256 1000
0 257 1000
0 258 1000
0 259 1000
0 260 1000
0 261 1000
0 262 1000
0 263 1000
0 264 1000
0 265 1000
0 266 1000
0 267 1000
0 268 1000
0 269 1000
0 270 1000
0 271 1000
0 272 1000
0 273 999.999
0 274 999.999
0 275 999.999
0 276 999.998
0 277 999.998
0 278 999.997
0 279 999.996
0 280 999.995
0 281 999.993
0 282 999.991
0 283 999.988
0 284 999.985
0 285 999.98
0 286 999.974
0 287 999.966
0 288 999.955
0 289 999.942
0 290 999.926
0 291 999.905
0 292 999.878
0 293 999.845
0 294 999.804
0 295 999.752
0 296 999.689
0 297 999.61
0 298 999.513
0 299 999.394
0 300 999.25
0 301 999.074
0 302 998.862
0 303 998.606
0 304 998.298
0 305 997.931
0 306 997.494
0 307 996.976
0 308 996.364
0 309 995.645
0 310 994.802
0 311 993.818
0 312 992.676
0 313 991.353
0 314 989.829
0 315 988.078
0 316 986.077
0 317 983.798
0 318 981.213
0 319 978.292
0 320 975.005
0 321 971.321
0 322 967.209
0 323 962.638
0 324 957.575
0 325 951.991
0 326 945.857
0 327 939.146
0 328 931.832
0 329 923.893
0 330 915.311
0 331 906.07
0 332 896.159
0 333 885.572
0 334 874.309
0 335 862.374
0 336 849.777
0 337 836.534
0 338 822.669
0 339 808.21
0 340 793.191
0 341 777.653
0 342 761.642
0 343 745.21
0 344 728.413
0 345 711.311
0 346 693.968
0 347 676.451
0 348 658.829
0 349 641.171
0 350 623.549
0 351 606.032
0 352 588.689
0 353 571.587
0 354 554.79
0 355 538.358
0 356 522.347
0 357 506.809
0 358 491.79
0 359 477.331
0 360 463.466
0 361 450.223
0 362 437.626
0 363 425.691
0 364 414.428
0 365 403.841
0 366 393.93
0 367 384.689
0 368 376.107
0 369 368.168
0 370 360.854
0 371 354.143
0 372 348.009
0 373 342.425
0 374 337.362
0 375 332.791
0 376 328.679
0 377 324.995
0 378 321.708
0 379 318.787
0 380 316.202
0 381 313.923
0 382 311.922
0 383 310.171
0 384 308.647
0 385 307.324
0 386 306.182
0 387 305.198
0 388 304.355
0 389 303.636
0 390 303.024
0 391 302.506
0 392 302.069
0 393 301.702
0 394 301.394
0 395 301.138
0 396 300.926
0 397 300.75
0 398 300.606
0 399 300.487
0 400 300.39
0 401 300.311
0 402 300.248
0 403 300.196
0 404 300.155
0 405 300.122
0 406 300.095
0 407 300.074
0 408 300.058
0 409 300.045
0 410 300.034
0 411 300.026
0 412 300.02
0 413 300.015
0 414 300.012
0 415 300.009
0 416 300.007
0 417 300.005
0 418 300.004
0 419 300.003
0 420 300.002
0 421 300.002
0 422 300.001
0 423 300.001
0 424 300.001
0 425 300
0 426 300
0 427 300
0 428 300
0 429 300
0 430 300
0 431 300
0 432 300
0 433 300
0 434 300
0 435 300
0 436 300
0 437 300
0 438 300
0 439 300
0 440 300
0 441 300
0 442 300
0 443 300
0 444 300
0 445 300
0 446 300
0 447 300
0 448 300
0 449 300
0 450 300
0 451 300
0 452 300
0 453 300
0 454 300
0 455 300
0 456 300
0 457 300
0 458 300
0 459 300
0 460 300
0 461 300
0 462 300
0 463 300
0 464 300
0 465 300
0 466 300
0 467 300
0 468 300
0 469 300
0 470 300
0 471 300
0 472 300
0 473 300
0 474 300
0 475 300
0 476 300
0 477 300
0 478 300
0 479 300
0 480 300
0 481 300
0 482 300
0 483 300
0 484 300
0 485 300
0 486 300
0 487 300
0 488 300
0 489 300
0 490 300
0 491 300
0 492 300
0 493 300
0 494 300
0 495 300
0 496 300
0 497 300
0 498 300
0 499 300
1 0 1000
1 1 1000
1 2 1000
1 3 1000
1 4 1000
1 5 1000
1 6 1000
1 7 1000
1 8 1000
1 9 1000
1 10 1000
1 11 1000
1 12 1000
1 13 1000
1 14 1000
1 15 1000
1 16 1000
1 17 1000
1 18 1000
1 19 1000
1 20 1000
1 21 1000
1 22 1000
1 23 1000
1 24 1000
1 25 1000
1 26 1000
1 27 1000
1 28 1000
1 29 1000
1 30 1000
1 31 1000
1 32 1000
1 33 1000
1 34 1000
1 35 1000
1 36 1000
1 37 1000
1 38 1000
1 39 1000
1 40 1000
1 41 1000
1 42 1000
1 43 1000
1 44 1000
1 45 1000
1 46 1000
1 47 1000
1 48 1000
1 49 1000
1 50 1000
1 51 1000
1 52 1000
1 53 1000
1 54 1000
1 55 1000
1 56 1000
1 57 1000
1 58 1000
1 59 1000
1 60 1000
1 61 1000
1 62 1000
1 63 1000
1 64 1000
1 65 1000
1 66 1000
1 67 1000
1 68 1000
1 69 1000
1 70 1000
1 71 1000
1 72 1000
1 73 1000
1 74 1000
1 75 1000
1 76 1000
1 77 1000
1 78 1000
1 79 1000
1 80 1000
1 81 1000
1 82 1000
1 83 1000
1 84 1000
1 85 1000
1 86 1000
1 87 1000
1 88 1000
1 89 1000
1 90 1000
1 91 1000
1 92 1000
1 93 1000
1 94 1000
1 95 1000
1 96 1000
1 97 1000
1 98 1000
1 99 1000
1 100 1000
1 101 1000
1 102 1000
1 103 1000
1 104 1000
1 105 1000
1 106 1000
1 107 1000
1 108 1000
1 109 1000
1 110 1000
1 111 1000
1 112 1000
1 113 1000
1 114 1000
1 115 1000
1 116 1000
1 117 1000
1 118 1000
1 119 1000
1 120 1000
1 121 1000
1 122 1000
1 123 1000
1 124 1000
1 125 1000
1 126 1000
1 127 1000
1 128 1000
1 129 1000
1 130 1000
1 131 1000
1 132 1000
1 133 1000
1 134 1000
1 135 1000
1 136 1000
1 137 1000
1 138 1000
1 139 1000
1 140 1000
1 141 1000
1 142 1000
1 143 1000
1 144 1000
1 145 1000
1 146 1000
1 147 1000
1 148 1000
1 149 1000
1 150 1000
1 151 1000
1 152 1000
1 153 1000
1 154 1000
1 155 1000
1 156 1000
1 157 1000
1 158 1000
1 159 1000
1 160 1000
1 161 1000
1 162 1000
1 163 1000
1 164 1000
1 165 1000
1 166 1000
1 167 1000
1 168 1000
1 169 1000
1 170 1000
1 171 1000
1 172 1000
1 173 1000
1 174 1000
1 175 1000
1 176 1000
1 177 1000
1 178 1000
1 179 1000
1 180 1000
1 181 1000
1 182 1000
1 183 1000
1 184 1000
1 185 1000
1 186 1000
1 187 1000
1 188 1000
1 189 1000
1 190 1000
1 191 1000
1 192 1000
1 193 1000
1 194 1000
1 195 1000
1 196 1000
1 197 1000
1 198 1000
1 199 1000
1 200 1000
1 201 1000
1 202 1000
1 203 1000
1 204 1000
1 205 1000
1 206 1000
1 207 1000
1 208 1000
1 209 1000
1 210 1000
1 211 1000
1 212 1000
1 213 1000
1 214 1000
1 215 1000
1 216 1000
1 217 1000
1 218 1000
1 219 1000
1 220 1000
1 221 1000
1 222 1000
1 223 1000
1 224 1000
1 225 1000
1 226 1000
1 227 1000
1 228 1000
1 229 1000
1 230 1000
1 231 1000
1 232 1000
1 233 1000
1 234 1000
1 235 1000
1 236 1000
1 237 1000
1 238 1000
1 239 1000
1 240 1000
1 241 1000
1 242 1000
1 243 1000
1 244 1000
1 245 1000
1 246 1000
1 247 1000
1 248 1000
1 249 1000
1 250 1000
1 251 1000
1 252 1000
1 253 1000
1 254 1000
1 255 1000
1 256 1000
1 257 1000
1 258 1000
1 259 1000
1 260 1000
1 261 1000
1 262 1000
1 263 1000
1 264 1000
1 265 1000
1 266 1000
1 267 1000
1 268 1000
1 269 1000
1 270 1000
1 271 1000
1 272 1000
1 273 999.999
1 274 999.999
1 275 999.999
1 276 999.998
1 277 999.998
1 278 999.997
1 279 999.996
1 280 999.995
1 281 999.993
1 282 999.991
1 283 999.988
1 284 999.985
1 285 999.98
1 286 999.974
1 287 999.966
1 288 999.955
1 289 999.942
1 290 999.926
1 291 999.905
1 292 999.878
1 293 999.845
1 294 999.804
1 295 999.752
1 296 999.689
1 297 999.61
1 298 999.513
1 299 999.394
1 300 999.25
1 301 999.074
1 302 998.862
1 303 998.606
1 304 998.298
1 305 997.931
1 306 997.494
1 307 996.976
1 308 996.364
1 309 995.645
1 310 994.802
1 311 993.818
1 312 992.676
1 313 991.353
1 314 989.829
1 315 988.078
1 316 986.077
1 317 983.798
1 318 981.213
1 319 978.292
1 320 975.005
1 321 971.321
1 322 967.209
1 323 962.638
1 324 957.575
1 325 951.991
1 326 945.857
1 327 939.146
1 328 931.832
1 329 923.893
1 330 915.311
1 331 906.07
1 332 896.159
1 333 885.572
1 334 874.309
1 335 862.374
1 336 849.777
1 337 836.534
1 338 822.669
1 339 808.21
1 340 793.191
1 341 777.653
1 342 761.642
1 343 745.21
1 344 728.413
1 345 711.311
1 346 693.968
1 347 676.451
1 348 658.829
1 349 641.171
1 350 623.549
1 351 606.032
1 352 588.689
1 353 571.587
1 354 554.79
1 355 538.358
1 356 522.347
1 357 506.809
1 358 491.79
1 359 477.331
1 360 463.466
1 361 450.223
1 362 437.626
1 363 425.691
1 364 414.428
1 365 403.841
1 366 393.93
1 367 384.689
1 368 376.107
1 369 368.168
1 370 360.854
1 371 354.143
1 372 348.009
1 373 342.425
1 374 337.362
1 375 332.791
1 376 328.679
1 377 324.995
1 378 321.708
1 379 318.787
1 380 316.202
1 381 313.923
1 382 311.922
1 383 310.171
1 384 308.647
1 385 307.324
1 386 306.182
1 387 305.198
1 388 304.355
1 389 303.636
1 390 303.024
1 391 302.506
1 392 302.069
1 393 301.702
1 394 301.394
1 395 301.138
1 396 300.926
1 397 300.75
1 398 300.606
1 399 300.487
1 400 300.39
1 401 300.311
1 402 300.248
1 403 300.196
1 404 300.155
1 405 300.122
1 406 300.095
1 407 300.074
1 408 300.058
1 409 300.045
1 410 300.034
1 411 300.026
1 412 300.02
1 413 300.015
1 414 300.012
1 415 300.009
1 416 300.007
1 417 300.005
1 418 300.004
1 419 300.003
1 420 300.002
1 421 300.002
1 422 300.001
1 423 300.001
1 424 300.001
1 425 300
1 426 300
1 427 300
1 428 300
1 429 300
1 430 300
1 431 300
1 432 300
1 433 300
1 434 300
1 435 300
1 436 300
1 437 300
1 438 300
1 439 300
1 440 300
1 441 300
1 442 300
1 443 300
1 444 300
1 445 300
1 446 300
1 447 300
1 448 300
1 449 300
1 450 300
1 451 300
1 452 300
1 453 300
1 454 300
1 455 300
1 456 300
1 457 300
1 458 300
1 459 300
1 460 300
1 461 300
1 462 300
1 463 300
1 464 300
1 465 300
1 466 300
1 467 300
1 468 300
1 469 300
1 470 300
1 471 300
1 472 300
1 473 300
1 474 300
1 475 300
1 476 300
1 477 300
1 478 300
1 479 300
1 480 300
1 481 300
1 482 300
1 483 300
1 484 300
1 485 300
1 486 300
1 487 300
1 488 300
1 489 300
1 490 300
1 491 300
1 492 300
1 493 300
1 494 300
1 495 300
1 496 300
1 497 300
1 498 300
1 499 300
2 0 1000
2 1 1000
2 2 1000
2 3 1000
2 4 1000
2 5 1000
2 6 1000
2 7 1000
2 8 1000
2 9 1000
2 10 1000
2 11 1000
2 12 1000
2 13 1000
2 14 1000
2 15 1000
2 16 1000
2 17 1000
2 18 1000
2 19 1000
2 20 1000
2 21 1000
2 22 1000
2 23 1000
2 24 1000
2 25 1000
2 26 1000
2 27 1000
2 28 1000
2 29 1000
2 30 1000
2 31 1000
2 32 1000
2 33 1000
2 34 1000
2 35 1000
2 36 1000
2 37 1000
2 38 1000
2 39 1000
2 40 1000
2 41 1000
2 42 1000
2 43 1000
2 44 1000
2 45 1000
2 46 1000
2 47 1000
2 48 1000
2 49 1000
2 50 1000
2 51 1000
2 52 1000
2 53 1000
2 54 1000
2 55 1000
2 56 1000
2 57 1000
2 58 1000
2 59 1000
2 60 1000
2 61 1000
2 62 1000
2 63 1000
2 64 1000
2 65 1000
2 66 1000
2 67 1000
2 68 1000
2 69 1000
2 70 1000
2 71 1000
2 72 1000
2 73 1000
2 74 1000
2 75 1000
2 76 1000
2 77 1000
2 78 1000
2 79 1000
2 80 1000
2 81 1000
2 82 1000
2 83 1000
2 84 1000
2 85 1000
2 86 1000
2 87 1000
2 88 1000
2 89 1000
2 90 1000
2 91 1000
2 92 1000
2 93 1000
2 94 1000
2 95 1000
2 96 1000
2 97 1000
2 98 1000
2 99 1000
2 100 1000
2 101 1000
2 102 1000
2 103 1000
2 104 1000
2 105 1000
2 106 1000
2 107 1000
2 108 1000
2 109 1000
2 110 1000
2 111 1000
2 112 1000
2 113 1000
2 114 1000
2 115 1000
2 116 1000
2 117 1000
2 118 1000
2 119 1000
2 120 1000
2 121 1000
2 122 1000
2 123 1000
2 124 1000
2 125 1000
2 126 1000
2 127 1000
2 128 1000
2 129 1000
2 130 1000
2 131 1000
2 132 1000
2 133 1000
2 134 1000
2 135 1000
2 136 1000
2 137 1000
2 138 1000
2 139 1000
2 140 1000
2 141 1000
2 142 1000
2 143 1000
2 144 1000
2 145 1000
2 146 1000
2 147 1000
2 148 1000
2 149 1000
2 150 1000
2 151 1000
2 152 1000
2 153 1000
2 154 1000
2 155 1000
2 156 1000
2 157 1000
2 158 1000
2 159 1000
2 160 1000
2 161 1000
2 162 1000
2 163 1000
2 164 1000
2 165 1000
2 166 1000
2 167 1000
2 168 1000
2 169 1000
2 170 1000
2 171 1000
2 172 1000
2 173 1000
2 174 1000
2 175 1000
2 176 1000
2 177 1000
2 178 1000
2 179 1000
2 180 1000
2 181 1000
2 182 1000
2 183 1000
2 184 1000
2 185 1000
2 186 1000
2 187 1000
2 188 1000
2 189 1000
2 190 1000
2 191 1000
2 192 1000
2 193 1000
2 194 1000
2 195 1000
2 196 1000
2 197 1000
2 198 1000
2 199 1000
2 200 1000
2 201 1000
2 202 1000
2 203 1000
2 204 1000
2 205 1000
2 206 1000
2 207 1000
2 208 1000
2 209 1000
2 210 1000
2 211 1000
2 212 1000
2 213 1000
2 214 1000
2 215 1000
2 216 1000
2 217 1000
2 218 1000
2 219 1000
2 220 1000
2 221 1000
2 222 1000
2 223 1000
2 224 1000
2 225 1000
2 226 1000
2 227 1000
2 228 1000
2 229 1000
2 230 1000
2 231 1000
2 232 1000
2 233 1000
2 234 1000
2 235 1000
2 236 1000
2 237 1000
2 238 1000
2 239 1000
2 240 1000
2 241 1000
2 242 1000
2 243 1000
2 244 1000
2 245 1000
2 246 1000
2 247 1000
2 248 1000
2 249 1000
2 250 1000
2 251 1000
2 252 1000
2 253 1000
2 254 1000
2 255 1000
2 256 1000
2 257 1000
2 258 1000
2 259 1000
2 260 1000
2 261 1000
2 262 1000
2 263 1000
2 264 1000
2 265 1000
2 266 1000
2 267 1000
2 268 1000
2 269 1000
2 270 1000
2 271 1000
2 272 1000
2 273 999.999
2 274 999.999
2 275 999.999
2 276 999.998
2 277 999.998
2 278 999.997
2 279 999.996
2 280 999.995
2 281 999.993
2 282 999.991
2 283 999.988
2 284 999.985
2 285 999.98
2 286 999.974
2 287 999.966
2 288 999.955
2 289 999.942
2 290 999.926
2 291 999.905
2 292 999.878
2 293 999.845
2 294 999.804
2 295 999.752
2 296 999.689
2 297 999.61
2 298 999.513
2 299 999.394
2 300 999.25
2 301 999.074
2 302 998.862
2 303 998.606
2 304 998.298
2 305 997.931
2 306 997.494
2 307 996.976
2 308 996.364
2 309 995.645
2 310 994.802
2 311 993.818
2 312 992.676
2 313 991.353
2 314 989.829
2 315 988.078
2 316 986.077
2 317 983.798
2 318 981.213
2 319 978.292
2 320 975.005
2 321 971.321
2 322 967.209
2 323 962.638
2 324 957.575
2 325 951.991
2 326 945.857
2 327 939.146
2 328 931.832
2 329 923.893
2 330 915.311
2 331 906.07
2 332 896.159
2 333 885.572
2 334 874.309
2 335 862.374
2 336 849.777
2 337 836.534
2 338 822.669
2 339 808.21
2 340 793.191
2 341 777.653
2 342 761.642
2 343 745.21
2 344 728.413
2 345 711.311
2 346 693.968
2 347 676.451
2 348 658.829
2 349 641.171
2 350 623.549
2 351 606.032
2 352 588.689
2 353 571.587
2 354 554.79
2 355 538.358
2 356 522.347
2 357 506.809
2 358 491.79
2 359 477.331
2 360 463.466
2 361 450.223
2 362 437.626
2 363 425.691
2 364 414.428
2 365 403.841
2 366 393.93
2 367 384.689
2 368 376.107
2 369 368.168
2 370 360.854
2 371 354.143
2 372 348.009
2 373 342.425
2 374 337.362
2 375 332.791
2 376 328.679
2 377 324.995
2 378 321.708
2 379 318.787
2 380 316.202
2 381 313.923
2 382 311.922
2 383 310.171
2 384 308.647
2 385 307.324
2 386 306.182
2 387 305.198
2 388 304.355
2 389 303.636
2 390 303.024
2 391 302.506
2 392 302.069
2 393 301.702
2 394 301.394
2 395 301.138
2 396 300.926
2 397 300.75
2 398 300.606
2 399 300.487
2 400 300.39
2 401 300.311
2 402 300.248
2 403 300.196
2 404 300.155
2 405 300.122
2 406 300.095
2 407 300.074
2 408 300.058
2 409 300.045
2 410 300.034
2 411 300.026
2 412 300.02
2 413 300.015
2 414 300.012
2 415 300.009
2 416 300.007
2 417 300.005
2 418 300.004
2 419 300.003
2 420 300.002
2 421 300.002
2 422 300.001
2 423 300.001
2 424 300.001
2 425 300
2 426 300
2 427 300
2 428 300
2 429 300
2 430 300
2 431 300
2 432 300
2 433 300
2 434 300
2 435 300
2 436 300
2 437 300
2 438 300
2 439 300
2 440 300
2 441 300
2 442 300
2 443 300
2 444 300
2 445 300
2 446 300
2 447 300
2 448 300
2 449 300
2 450 300
2 451 300
2 452 300
2 453 300
2 454 300
2 455 300
2 456 300
2 457 300
2 458 300
2 459 300
2 460 300
2 461 300
2 462 300
2 463 300
2 464 300
2 465 300
2 466 300
2 467 300
2 468 300
2 469 300
2 470 300
2 471 300
2 472 300
2 473 300
2 474 300
2 475 300
2 476 300
2 477 300
2 478 300
2 479 300
2 480 300
2 481 300
2 482 300
2 483 300
2 484 300
2 485 300
2 486 300
2 487 300
2 488 300
2 489 300
2 490 300
2 491 300
2 492 300
2 493 300
2 494 300
2 495 300
2 496 300
2 497 300
2 498 300
2 499 300
3 0 1000
3 1 1000
3 2 1000
3 3 1000
3 4 1000
3 5 1000
3 6 1000
3 7 1000
3 8 1000
3 9 1000
3 10 1000
3 11 1000
3 12 1000
3 13 1000
3 14 1000
3 15 1000
3 16 1000
3 17 1000
3 18 1000
3 19 1000
3 20 1000
3 21 1000
3 22 1000
3 23 1000
3 24 1000
3 25 1000
3 26 1000
3 27 1000
3 28 1000
3 29 1000
3 30 1000
3 31 1000
3 32 1000
3 33 1000
3 34 1000
3 35 1000
3 36 1000
3 37 1000
3 38 1000
3 39 1000
3 40 1000
3 41 1000
3 42 1000
3 43 1000
3 44 1000
3 45 1000
3 46 1000
3 47 1000
3 48 1000
3 49 1000
3 50 1000
3 51 1000
3 52 1000
3 53 1000
3 54 1000
3 55 1000
3 56 1000
3 57 1000
3 58 1000
3 59 1000
3 60 1000
3 61 1000
3 62 1000
3 63 1000
3 64 1000
3 65 1000
3 66 1000
3 67 1000
3 68 1000
3 69 1000
3 70 1000
3 71 1000
3 72 1000
3 73 1000
3 74 1000
3 75 1000
3 76 1000
3 77 1000
3 78 1000
3 79 1000
3 80 1000
3 81 1000
3 82 1000
3 83 1000
3 84 1000
3 85 1000
3 86 1000
3 87 1000
3 88 1000
3 89 1000
3 90 1000
3 91 1000
3 92 1000
3 93 1000
3 94 1000
3 95 1000
3 96 1000
3 97 1000
3 98 1000
3 99 1000
3 100 1000
3 101 1000
3 102 1000
3 103 1000
3 104 1000
3 105 1000
3 106 1000
3 107 1000
3 108 1000
3 109 1000
3 110 1000
3 111 1000
3 112 1000
3 113 1000
3 114 1000
3 115 1000
3 116 1000
3 117 1000
3 118 1000
3 119 1000
3 120 1000
3 121 1000
3 122 1000
3 123 1000
3 124 1000
3 125 1000
3 126 1000
3 127 1000
3 128 1000
3 129 1000
3 130 1000
3 131 1000
3 132 1000
3 133 1000
3 134 1000
3 135 1000
3 136 1000
3 137 1000
3 138 1000
3 139 1000
3 140 1000
3 141 1000
3 142 1000
3 143 1000
3 144 1000
3 145 1000
3 146 1000
3 147 1000
3 148 1000
3 149 1000
3 150 1000
3 151 1000
3 152 1000
3 153 1000
3 154 1000
3 155 1000
3 156 1000
3 157 1000
3 158 1000
3 159 1000
3 160 1000
3 161 1000
3 162 1000
3 163 1000
3 164 1000
3 165 1000
3 166 1000
3 167 1000
3 168 1000
3 169 1000
3 170 1000
3 171 1000
3 172 1000
3 173 1000
3 174 1000
3 175 1000
3 176 1000
3 177 1000
3 178 1000
3 179 1000
3 180 1000
3 181 1000
3 182 1000
3 183 1000
3 184 1000
3 185 1000
3 186 1000
3 187 1000
3 188 1000
3 189 1000
3 190 1000
3 191 1000
3 192 1000
3 193 1000
3 194 1000
3 195 1000
3 196 1000
3 197 1000
3 198 1000
3 199 1000
3 200 1000
3 201 1000
3 202 1000
3 203 1000
3 204 1000
3 205 1000
3 206 1000
3 207 1000
3 208 1000
3 209 1000
3 210 1000
3 211 1000
3 212 1000
3 213 1000
3 214 1000
3 215 1000
3 216 1000
3 217 1000
3 218 1000
3 219 1000
3 220 1000
3 221 1000
3 222 1000
3 223 1000
3 224 1000
3 225 1000
3 226 1000
3 227 1000
3 228 1000
3 229 1000
3 230 1000
3 231 1000
3 232 1000
3 233 1000
3 234 1000
3 235 1000
3 236 1000
3 237 1000
3 238 1000
3 239 1000
3 240 1000
3 241 1000
3 242 1000
3 243 1000
3 244 1000
3 245 1000
3 246 1000
3 247 1000
3 248 1000
3 249 1000
3 250 1000
3 251 1000
3 252 1000
3 253 1000
3 254 1000
3 255 1000
3 256 1000
3 257 1000
3 258 1000
3 259 1000
3 260 1000
3 261 1000
3 262 1000
3 263 1000
3 264 1000
3 265 1000
3 266 1000
3 267 1000
3 268 1000
3 269 1000
3 270 1000
3 271 1000
3 272 1000
3 273 999.999
3 274 999.999
3 275 999.999
3 276 999.998
3 277 999.998
3 278 999.997
3 279 999.996
3 280 999.995
3 281 999.993
3 282 999.991
3 283 999.988
3 284 999.985
3 285 999.98
3 286 999.974
3 287 999.966
3 288 999.955
3 289 999.942
3 290 999.926
3 291 999.905
3 292 999.878
3 293 999.845
3 294 999.804
3 295 999.752
3 296 999.689
3 297 999.61
3 298 999.513
3 299 999.394
3 300 999.25
3 301 999.074
3 302 998.862
3 303 998.606
3 304 998.298
3 305 997.931
3 306 997.494
3 307 996.976
3 308 996.364
3 309 995.645
3 310 994.802
3 311 993.818
3 312 992.676
3 313 991.353
3 314 989.829
3 315 988.078
3 316 986.077
3 317 983.798
3 318 981.213
3 319 978.292
3 320 975.005
3 321 971.321
3 322 967.209
3 323 962.638
3 324 957.575
3 325 951.991
3 326 945.857
3 327 939.146
3 328 931.832
3 329 923.893
3 330 915.311
3 331 906.07
3 332 896.159
3 333 885.572
3 334 874.309
3 335 862.374
3 336 849.777
3 337 836.534
3 338 822.669
3 339 808.21
3 340 793.191
3 341 777.653
3 342 761.642
3 343 745.21
3 344 728.413
3 345 711.311
3 346 693.968
3 347 676.451
3 348 658.829
3 349 641.171
3 350 623.549
3 351 606.032
3 352 588.689
3 353 571.587
3 354 554.79
3 355 538.358
3 356 522.347
3 357 506.809
3 358 491.79
3 359 477.331
3 360 463.466
3 361 450.223
3 362 437.626
3 363 425.691
3 364 414.428
3 365 403.841
3 366 393.93
3 367 384.689
3 368 376.107
3 369 368.168
3 370 360.854
3 371 354.143
3 372 348.009
3 373 342.425
3 374 337.362
3 375 332.791
3 376 328.679
3 377 324.995
3 378 321.708
3 379 318.787
3 380 316.202
3 381 313.923
3 382 311.922
3 383 310.171
3 384 308.647
3 385 307.324
3 386 306.182
3 387 305.198
3 388 304.355
3 389 303.636
3 390 303.024
3 391 302.506
3 392 302.069
3 393 301.702
3 394 301.394
3 395 301.138
3 396 300.926
3 397 300.75
3 398 300.606
3 399 300.487
3 400 300.39
3 401 300.311
3 402 300.248
3 403 300.196
3 404 300.155
3 405 300.122
3 406 300.095
3 407 300.074
3 408 300.058
3 409 300.045
3 410 300.034
3 411 300.026
3 412 300.02
3 413 300.015
3 414 300.012
3 415 300.009
3 416 300.007
3 417 300.005
3 418 300.004
3 419 300.003
3 420 300.002
3 421 300.002
3 422 300.001
3 423 300.001
3 424 300.001
3 425 300
3 426 300
3 427 300
3 428 300
3 429 300
3 430 300
3 431 300
3 432 300
3 433 300
3 434 300
3 435 300
3 436 300
3 437 300
3 438 300
3 439 300
3 440 300
3 441 300
3 442 300
3 443 300
3 444 300
3 445 300
3 446 300
3 447 300
3 448 300
3 449 300
3 450 300
3 451 300
3 452 300
3 453 300
3 454 300
3 455 300
3 456 300
3 457 300
3 458 300
3 459 300
3 460 300
3 461 300
3 462 300
3 463 300
3 464 300
3 465 300
3 466 300
3 467 300
3 468 300
3 469 300
3 470 300
3 471 300
3 472 300
3 473 300
3 474 300
3 475 300
3 476 300
3 477 300
3 478 300
3 479 300
3 480 300
3 481 300
3 482 300
3 483 300
3 484 300
3 485 300
3 486 300
3 487 300
3 488 300
3 489 300
3 490 300
3 491 300
3 492 300
3 493 300
3 494 300
3 495 300
3 496 300
3 497 300
3 498 300
3 499 300
4 0 1000
4 1 1000
4 2 1000
4 3 1000
4 4 1000
4 5 1000
4 6 1000
4 7 1000
4 8 1000
4 9 1000
4 10 1000
4 11 1000
4 12 1000
4 13 1000
4 14 1000
4 15 1000
4 16 1000
4 17 1000
4 18 1000
4 19 1000
4 20 1000
4 21 1000
4 22 1000
4 23 1000
4 24 1000
4 25 1000
4 26 1000
4 27 1000
4 28 1000
4 29 1000
4 30 1000
4 31 1000
4 32 1000
4 33 1000
4 34 1000
4 35 1000
4 36 1000
4 37 1000
4 38 1000
4 39 1000
4 40 1000
4 41 1000
4 42 1000
4 43 1000
4 44 1000
4 45 1000
4 46 1000
4 47 1000
4 48 1000
4 49 1000
4 50 1000
4 51 1000
4 52 1000
4 53 1000
4 54 1000
4 55 1000
4 56 1000
4 57 1000
4 58 1000
4 59 1000
4 60 1000
4 61 1000
4 62 1000
4 63 1000
4 64 1000
4 65 1000
4 66 1000
4 67 1000
4 68 1000
4 69 1000
4 70 1000
4 71 1000
4 72 1000
4 73 1000
4 74 1000
4 75 1000
4 76 1000
4 77 1000
4 78 1000
4 79 1000
4 80 1000
4 81 1000
4 82 1000
4 83 1000
4 84 1000
4 85 1000
4 86 1000
4 87 1000
4 88 1000
4 89 1000
4 90 1000
4 91 1000
4 92 1000
4 93 1000
4 94 1000
4 95 1000
4 96 1000
4 97 1000
4 98 1000
4 99 1000
4 100 1000
4 101 1000
4 102 1000
4 103 1000
4 104 1000
4 105 1000
4 106 1000
4 107 1000
4 108 1000
4 109 1000
4 110 1000
4 111 1000
4 112 1000
4 113 1000
4 114 1000
4 115 1000
4 116 1000
4 117 1000
4 118 1000
4 119 1000
4 120 1000
4 121 1000
4 122 1000
4 123 1000
4 124 1000
4 125 1000
4 126 1000
4 127 1000
4 128 1000
4 129 1000
4 130 1000
4 131 1000
4 132 1000
4 133 1000
4 134 1000
4 135 1000
4 136 1000
4 137 1000
4 138 1000
4 139 1000
4 140 1000
4 141 1000
4 142 1000
4 143 1000
4 144 1000
4 145 1000
4 146 1000
4 147 1000
4 148 1000
4 149 1000
4 150 1000
4 151 1000
4 152 1000
4 153 1000
4 154 1000
4 155 1000
4 156 1000
4 157 1000
4 158 1000
4 159 1000
4 160 1000
4 161 1000
4 162 1000
4 163 1000
4 164 1000
4 165 1000
4 166 1000
4 167 1000
4 168 1000
4 169 1000
4 170 1000
4 171 1000
4 172 1000
4 173 1000
4 174 1000
4 175 1000
4 176 1000
4 177 1000
4 178 1000
4 179 1000
4 180 1000
4 181 1000
4 182 1000
4 183 1000
4 184 1000
4 185 1000
4 186 1000
4 187 1000
4 188 1000
4 189 1000
4 190 1000
4 191 1000
4 192 1000
4 193 1000
4 194 1000
4 195 1000
4 196 1000
4 197 1000
4 198 1000
4 199 1000
4 200 1000
4 201 1000
4 202 1000
4 203 1000
4 204 1000
4 205 1000
4 206 1000
4 207 1000
4 208 1000
4 209 1000
4 210 1000
4 211 1000
4 212 1000
4 213 1000
4 214 1000
4 215 1000
4 216 1000
4 217 1000
4 218 1000
4 219 1000
4 220 1000
4 221 1000
4 222 1000
4 223 1000
4 224 1000
4 225 1000
4 226 1000
4 227 1000
4 228 1000
4 229 1000
4 230 1000
4 231 1000
4 232 1000
4 233 1000
4 234 1000
4 235 1000
4 236 1000
4 237 1000
4 238 1000
4 239 1000
4 240 1000
4 241 1000
4 242 1000
4 243 1000
4 244 1000
4 245 1000
4 246 1000
4 247 1000
4 248 1000
4 249 1000
4 250 1000
4 251 1000
4 252 1000
4 253 1000
4 254 1000
4 255 1000
4 256 1000
4 257 1000
4 258 1000
4 259 1000
4 260 1000
4 261 1000
4 262 1000
4 263 1000
4 264 1000
4 265 1000
4 266 1000
4 267 1000
4 268 1000
4 269 1000
4 270 1000
4 271 1000
4 272 1000
4 273 999.999
4 274 999.999
4 275 999.999
4 276 999.998
4 277 999.998
4 278 999.997
4 279 999.996
4 280 999.995
4 281 999.993
4 282 999.991
4 283 999.988
4 284 999.985
4 285 999.98
4 286 999.974
4 287 999.966
4 288 999.955
4 289 999.942
4 290 999.926
4 291 999.905
4 292 999.878
4 293 999.845
4 294 999.804
4 295 999.752
4 296 999.689
4 297 999.61
4 298 999.513
4 299 999.394
4 300 999.25
4 301 999.074
4 302 998.862
4 303 998.606
4 304 998.298
4 305 997.931
4 306 997.494
4 307 996.976
4 308 996.364
4 309 995.645
4 310 994.802
4 311 993.818
4 312 992.676
4 313 991.353
4 314 989.829
4 315 988.078
4 316 986.077
4 317 983.798
4 318 981.213
4 319 978.292
4 320 975.005
4 321 971.321
4 322 967.209
4 323 962.638
4 324 957.575
4 325 951.991
4 326 945.857
4 327 939.146
4 328 931.832
4 329 923.893
4 330 915.311
4 331 906.07
4 332 896.159
4 333 885.572
4 334 874.309
4 335 862.374
4 336 849.777
4 337 836.534
4 338 822.669
4 339 808.21
4 340 793.191
4 341 777.653
4 342 761.642
4 343 745.21
4 344 728.413
4 345 711.311
4 346 693.968
4 347 676.451
4 348 658.829
4 349 641.171
4 350 623.549
4 351 606.032
4 352 588.689
4 353 571.587
4 354 554.79
4 355 538.358
4 356 522.347
4 357 506.809
4 358 491.79
4 359 477.331
4 360 463.466
4 361 450.223
4 362 437.626
4 363 425.691
4 364 414.428
4 365 403.841
4 366 393.93
4 367 384.689
4 368 376.107
4 369 368.168
4 370 360.854
4 371 354.143
4 372 348.009
4 373 342.425
4 374 337.362
4 375 332.791
4 376 328.679
4 377 324.995
4 378 321.708
4 379 318.787
4 380 316.202
4 381 313.923
4 382 311.922
4 383 310.171
4 384 308.647
4 385 307.324
4 386 306.182
4 387 305.198
4 388 304.355
4 389 303.636
4 390 303.024
4 391 302.506
4 392 302.069
4 393 301.702
4 394 301.394
4 395 301.138
4 396 300.926
4 397 300.75
4 398 300.606
4 399 300.487
4 400 300.39
4 401 300.311
4 402 300.248
4 403 300.196
4 404 300.155
4 405 300.122
4 406 300.095
4 407 300.074
4 408 300.058
4 409 300.045
4 410 300.034
4 411 300.026
4 412 300.02
4 413 300.015
4 414 300.012
4 415 300.009
4 416 300.007
4 417 300.005
4 418 300.004
4 419 300.003
4 420 300.002
4 421 300.002
4 422 300.001
4 423 300.001
4 424 300.001
4 425 300
4 426 300
4 427 300
4 428 300
4 429 300
4 430 300
4 431 300
4 432 300
4 433 300
4 434 300
4 435 300
4 436 300
4 437 300
4 438 300
4 439 300
4 440 300
4 441 300
4 442 300
4 443 300
4 444 300
4 445 300
4 446 300
4 447 300
4 448 300
4 449 300
4 450 300
4 451 300
4 452 300
4 453 300
4 454 300
4 455 300
4 456 300
4 457 300
4 458 300
4 459 300
4 460 300
4 461 300
4 462 300
4 463 300
4 464 300
4 465 300
4 466 300
4 467 300
4 468 300
4 469 300
4 470 300
4 471 300
4 472 300
4 473 300
4 474 300
4 475 300
4 476 300
4 477 300
4 478 300
4 479 300
4 480 300
4 481 300
4 482 300
4 483 300
4 484 300
4 485 300
4 486 300
4 487 300
4 488 300
4 489 300
4 490 300
4 491 300
4 492 300
4 493 300
4 494 300
4 495 300
4 496 300
4 497 300
4 498 300
4 499 300
5 0 1000
5 1 1000
5 2 1000
5 3 1000
5 4 1000
5 5 1000
5 6 1000
5 7 1000
5 8 1000
5 9 1000
5 10 1000
5 11 1000
5 12 1000
5 13 1000
5 14 1000
5 15 1000
5 16 1000
5 17 1000
5 18 1000
5 19 1000
5 20 1000
5 21 1000
5 22 1000
5 23 1000
5 24 1000
5 25 1000
5 26 1000
5 27 1000
5 28 1000
5 29 1000
5 30 1000
5 31 1000
5 32 1000
5 33 1000
5 34 1000
5 35 1000
5 36 1000
5 37 1000
5 38 1000
5 39 1000
5 40 1000
5 41 1000
5 42 1000
5 43 1000
5 44 1000
5 45 1000
5 46 1000
5 47 1000
5 48 1000
5 49 1000
5 50 1000
5 51 1000
5 52 1000
5 53 1000
5 54 1000
5 55 1000
5 56 1000
5 57 1000
5 58 1000
5 59 1000
5 60 1000
5 61 1000
5 62 1000
5 63 1000
5 64 1000
5 65 1000
5 66 1000
5 67 1000
5 68 1000
5 69 1000
5 70 1000
5 71 1000
5 72 1000
5 73 1000
5 74 1000
5 75 1000
5 76 1000
5 77 1000
5 78 1000
5 79 1000
5 80 1000
5 81 1000
5 82 1000
5 83 1000
5 84 1000
5 85 1000
5 86 1000
5 87 1000
5 88 1000
5 89 1000
5 90 1000
5 91 1000
5 92 1000
5 93 1000
5 94 1000
5 95 1000
5 96 1000
5 97 1000
5 98 1000
5 99 1000
5 100 1000
5 101 1000
5 102 1000
5 103 1000
5 104 1000
5 105 1000
5 106 1000
5 107 1000