TITLE = "Bivariate normal distribution density"
VARIABLES = "x", "y", "T"
ZONE T = "Numerical", I = 500, J = 500, F = Point
0 0 962.029
0 1 962.025
0 2 962.016
0 3 962.004
0 4 961.987
0 5 961.966
0 6 961.941
0 7 961.912
0 8 961.879
0 9 961.841
0 10 961.799
0 11 961.753
0 12 961.703
0 13 961.649
0 14 961.59
0 15 961.527
0 16 961.46
0 17 961.389
0 18 961.313
0 19 961.234
0 20 961.15
0 21 961.061
0 22 960.969
0 23 960.872
0 24 960.771
0 25 960.666
0 26 960.557
0 27 960.443
0 28 960.325
0 29 960.203
0 30 960.076
0 31 959.945
0 32 959.81
0 33 959.67
0 34 959.526
0 35 959.378
0 36 959.225
0 37 959.068
0 38 958.906
0 39 958.741
0 40 958.57
0 41 958.396
0 42 958.217
0 43 958.033
0 44 957.845
0 45 957.653
0 46 957.456
0 47 957.254
0 48 957.048
0 49 956.838
0 50 956.623
0 51 956.403
0 52 956.179
0 53 955.95
0 54 955.717
0 55 955.479
0 56 955.237
0 57 954.99
0 58 954.738
0 59 954.482
0 60 954.221
0 61 953.955
0 62 953.684
0 63 953.409
0 64 953.129
0 65 952.844
0 66 952.555
0 67 952.261
0 68 951.961
0 69 951.658
0 70 951.349
0 71 951.035
0 72 950.717
0 73 950.393
0 74 950.065
0 75 949.732
0 76 949.394
0 77 949.05
0 78 948.702
0 79 948.349
0 80 947.991
0 81 947.628
0 82 947.259
0 83 946.886
0 84 946.508
0 85 946.124
0 86 945.735
0 87 945.342
0 88 944.943
0 89 944.538
0 90 944.129
0 91 943.714
0 92 943.295
0 93 942.869
0 94 942.439
0 95 942.003
0 96 941.562
0 97 941.116
0 98 940.664
0 99 940.207
0 100 939.745
0 101 939.277
0 102 938.803
0 103 938.324
0 104 937.84
0 105 937.35
0 106 936.855
0 107 936.354
0 108 935.848
0 109 935.336
0 110 934.818
0 111 934.295
0 112 933.766
0 113 933.232
0 114 932.692
0 115 932.146
0 116 931.594
0 117 931.037
0 118 930.474
0 119 929.906
0 120 929.331
0 121 928.751
0 122 928.165
0 123 927.573
0 124 926.976
0 125 926.372
0 126 925.763
0 127 925.147
0 128 924.526
0 129 923.899
0 130 923.266
0 131 922.627
0 132 921.982
0 133 921.331
0 134 920.674
0 135 920.011
0 136 919.342
0 137 918.667
0 138 917.986
0 139 917.299
0 140 916.606
0 141 915.907
0 142 915.201
0 143 914.49
0 144 913.772
0 145 913.048
0 146 912.319
0 147 911.582
0 148 910.84
0 149 910.092
0 150 909.337
0 151 908.576
0 152 907.809
0 153 907.036
0 154 906.257
0 155 905.471
0 156 904.679
0 157 903.881
0 158 903.076
0 159 902.265
0 160 901.448
0 161 900.625
0 162 899.795
0 163 898.959
0 164 898.117
0 165 897.269
0 166 896.414
0 167 895.553
0 168 894.685
0 169 893.811
0 170 892.931
0 171 892.045
0 172 891.152
0 173 890.253
0 174 889.348
0 175 888.436
0 176 887.518
0 177 886.594
0 178 885.663
0 179 884.726
0 180 883.783
0 181 882.834
0 182 881.878
0 183 880.916
0 184 879.947
0 185 878.972
0 186 877.991
0 187 877.004
0 188 876.011
0 189 875.011
0 190 874.005
0 191 872.992
0 192 871.974
0 193 870.949
0 194 869.918
0 195 868.881
0 196 867.838
0 197 866.788
0 198 865.732
0 199 864.67
0 200 863.602
0 201 862.528
0 202 861.448
0 203 860.362
0 204 859.27
0 205 858.171
0 206 857.067
0 207 855.956
0 208 854.84
0 209 853.717
0 210 852.589
0 211 851.455
0 212 850.314
0 213 849.168
0 214 848.016
0 215 846.859
0 216 845.695
0 217 844.526
0 218 843.35
0 219 842.17
0 220 840.983
0 221 839.791
0 222 838.593
0 223 837.389
0 224 836.18
0 225 834.965
0 226 833.745
0 227 832.52
0 228 831.288
0 229 830.052
0 230 828.81
0 231 827.563
0 232 826.31
0 233 825.052
0 234 823.789
0 235 822.52
0 236 821.247
0 237 819.968
0 238 818.685
0 239 817.396
0 240 816.102
0 241 814.803
0 242 813.5
0 243 812.191
0 244 810.878
0 245 809.56
0 246 808.237
0 247 806.909
0 248 805.577
0 249 804.24
0 250 802.899
0 251 801.553
0 252 800.203
0 253 798.848
0 254 797.489
0 255 796.126
0 256 794.758
0 257 793.387
0 258 792.011
0 259 790.631
0 260 789.247
0 261 787.859
0 262 786.468
0 263 785.072
0 264 783.673
0 265 782.27
0 266 780.863
0 267 779.453
0 268 778.039
0 269 776.622
0 270 775.201
0 271 773.777
0 272 772.349
0 273 770.919
0 274 769.485
0 275 768.049
0 276 766.609
0 277 765.166
0 278 763.72
0 279 762.272
0 280 760.821
0 281 759.367
0 282 757.911
0 283 756.452
0 284 754.991
0 285 753.527
0 286 752.061
0 287 750.592
0 288 749.122
0 289 747.65
0 290 746.175
0 291 744.699
0 292 743.22
0 293 741.74
0 294 740.259
0 295 738.775
0 296 737.29
0 297 735.804
0 298 734.316
0 299 732.828
0 300 731.337
0 301 729.846
0 302 728.354
0 303 726.86
0 304 725.366
0 305 723.871
0 306 722.376
0 307 720.879
0 308 719.382
0 309 717.885
0 310 716.388
0 311 714.89
0 312 713.392
0 313 711.893
0 314 710.395
0 315 708.897
0 316 707.399
0 317 705.901
0 318 704.404
0 319 702.907
0 320 701.411
0 321 699.915
0 322 698.42
0 323 696.926
0 324 695.432
0 325 693.94
0 326 692.449
0 327 690.959
0 328 689.47
0 329 687.982
0 330 686.496
0 331 685.012
0 332 683.529
0 333 682.048
0 334 680.569
0 335 679.092
0 336 677.617
0 337 676.143
0 338 674.673
0 339 673.204
0 340 671.738
0 341 670.274
0 342 668.813
0 343 667.355
0 344 665.9
0 345 664.447
0 346 662.997
0 347 661.551
0 348 660.108
0 349 658.668
0 350 657.231
0 351 655.798
0 352 654.368
0 353 652.943
0 354 651.521
0 355 650.102
0 356 648.688
0 357 647.278
0 358 645.872
0 359 644.471
0 360 643.073
0 361 641.681
0 362 640.292
0 363 638.909
0 364 637.53
0 365 636.156
0 366 634.787
0 367 633.423
0 368 632.065
0 369 630.711
0 370 629.363
0 371 628.021
0 372 626.684
0 373 625.352
0 374 624.026
0 375 622.707
0 376 621.393
0 377 620.085
0 378 618.783
0 379 617.488
0 380 616.199
0 381 614.916
0 382 613.64
0 383 612.37
0 384 611.107
0 385 609.851
0 386 608.602
0 387 607.359
0 388 606.124
0 389 604.896
0 390 603.676
0 391 602.462
0 392 601.256
0 393 600.058
0 394 598.867
0 395 597.684
0 396 596.509
0 397 595.342
0 398 594.183
0 399 593.031
0 400 591.888
0 401 590.753
0 402 589.627
0 403 588.509
0 404 587.4
0 405 586.299
0 406 585.207
0 407 584.123
0 408 583.049
0 409 581.983
0 410 580.926
0 411 579.879
0 412 578.841
0 413 577.812
0 414 576.792
0 415 575.782
0 416 574.781
0 417 573.79
0 418 572.809
0 419 571.837
0 420 570.875
0 421 569.923
0 422 568.981
0 423 568.049
0 424 567.128
0 425 566.216
0 426 565.315
0 427 564.424
0 428 563.543
0 429 562.673
0 430 561.814
0 431 560.965
0 432 560.127
0 433 559.299
0 434 558.483
0 435 557.677
0 436 556.883
0 437 556.099
0 438 555.326
0 439 554.565
0 440 553.815
0 441 553.076
0 442 552.348
0 443 551.632
0 444 550.927
0 445 550.234
0 446 549.552
0 447 548.882
0 448 548.224
0 449 547.577
0 450 546.942
0 451 546.319
0 452 545.708
0 453 545.109
0 454 544.522
0 455 543.947
0 456 543.384
0 457 542.833
0 458 542.294
0 459 541.767
0 460 541.253
0 461 540.751
0 462 540.261
0 463 539.784
0 464 539.319
0 465 538.867
0 466 538.427
0 467 538
0 468 537.585
0 469 537.183
0 470 536.793
0 471 536.417
0 472 536.052
0 473 535.701
0 474 535.362
0 475 535.037
0 476 534.724
0 477 534.423
0 478 534.136
0 479 533.862
0 480 533.6
0 481 533.352
0 482 533.116
0 483 532.894
0 484 532.684
0 485 532.487
0 486 532.304
0 487 532.133
0 488 531.976
0 489 531.831
0 490 531.7
0 491 531.582
0 492 531.477
0 493 531.385
0 494 531.306
0 495 531.24
0 496 531.188
0 497 531.148
0 498 531.122
0 499 531.109
1 0 962.012
1 1 962.008
1 2 962
1 3 961.987
1 4 961.97
1 5 961.949
1 6 961.924
1 7 961.895
1 8 961.862
1 9 961.824
1 10 961.782
1 11 961.736
1 12 961.686
1 13 961.632
1 14 961.573
1 15 961.51
1 16 961.443
1 17 961.372
1 18 961.296
1 19 961.217
1 20 961.133
1 21 961.045
1 22 960.952
1 23 960.855
1 24 960.754
1 25 960.649
1 26 960.54
1 27 960.426
1 28 960.308
1 29 960.186
1 30 960.059
1 31 959.928
1 32 959.793
1 33 959.653
1 34 959.509
1 35 959.361
1 36 959.208
1 37 959.051
1 38 958.89
1 39 958.724
1 40 958.553
1 41 958.379
1 42 958.2
1 43 958.016
1 44 957.828
1 45 957.636
1 46 957.439
1 47 957.237
1 48 957.031
1 49 956.821
1 50 956.606
1 51 956.386
1 52 956.162
1 53 955.934
1 54 955.7
1 55 955.463
1 56 955.22
1 57 954.973
1 58 954.721
1 59 954.465
1 60 954.204
1 61 953.938
1 62 953.667
1 63 953.392
1 64 953.112
1 65 952.828
1 66 952.538
1 67 952.244
1 68 951.945
1 69 951.641
1 70 951.332
1 71 951.018
1 72 950.7
1 73 950.377
1 74 950.048
1 75 949.715
1 76 949.377
1 77 949.034
1 78 948.686
1 79 948.332
1 80 947.974
1 81 947.611
1 82 947.243
1 83 946.87
1 84 946.491
1 85 946.108
1 86 945.719
1 87 945.325
1 88 944.926
1 89 944.522
1 90 944.113
1 91 943.698
1 92 943.278
1 93 942.853
1 94 942.423
1 95 941.987
1 96 941.546
1 97 941.099
1 98 940.648
1 99 940.191
1 100 939.728
1 101 939.26
1 102 938.787
1 103 938.308
1 104 937.824
1 105 937.334
1 106 936.839
1 107 936.338
1 108 935.831
1 109 935.319
1 110 934.802
1 111 934.279
1 112 933.75
1 113 933.216
1 114 932.676
1 115 932.13
1 116 931.578
1 117 931.021
1 118 930.458
1 119 929.89
1 120 929.315
1 121 928.735
1 122 928.149
1 123 927.557
1 124 926.959
1 125 926.356
1 126 925.747
1 127 925.131
1 128 924.51
1 129 923.883
1 130 923.25
1 131 922.611
1 132 921.966
1 133 921.315
1 134 920.658
1 135 919.995
1 136 919.326
1 137 918.652
1 138 917.97
1 139 917.283
1 140 916.59
1 141 915.891
1 142 915.186
1 143 914.474
1 144 913.757
1 145 913.033
1 146 912.303
1 147 911.567
1 148 910.825
1 149 910.076
1 150 909.322
1 151 908.561
1 152 907.794
1 153 907.02
1 154 906.241
1 155 905.455
1 156 904.663
1 157 903.865
1 158 903.061
1 159 902.25
1 160 901.433
1 161 900.609
1 162 899.78
1 163 898.944
1 164 898.102
1 165 897.253
1 166 896.399
1 167 895.537
1 168 894.67
1 169 893.796
1 170 892.916
1 171 892.03
1 172 891.137
1 173 890.238
1 174 889.333
1 175 888.421
1 176 887.503
1 177 886.579
1 178 885.648
1 179 884.711
1 180 883.768
1 181 882.819
1 182 881.863
1 183 880.901
1 184 879.932
1 185 878.958
1 186 877.977
1 187 876.989
1 188 875.996
1 189 874.996
1 190 873.99
1 191 872.978
1 192 871.959
1 193 870.934
1 194 869.903
1 195 868.866
1 196 867.823
1 197 866.773
1 198 865.718
1 199 864.656
1 200 863.588
1 201 862.514
1 202 861.434
1 203 860.348
1 204 859.255
1 205 858.157
1 206 857.052
1 207 855.942
1 208 854.826
1 209 853.703
1 210 852.575
1 211 851.441
1 212 850.3
1 213 849.154
1 214 848.002
1 215 846.845
1 216 845.681
1 217 844.512
1 218 843.337
1 219 842.156
1 220 840.969
1 221 839.777
1 222 838.579
1 223 837.375
1 224 836.166
1 225 834.952
1 226 833.732
1 227 832.506
1 228 831.275
1 229 830.038
1 230 828.796
1 231 827.549
1 232 826.296
1 233 825.039
1 234 823.775
1 235 822.507
1 236 821.234
1 237 819.955
1 238 818.671
1 239 817.382
1 240 816.089
1 241 814.79
1 242 813.486
1 243 812.178
1 244 810.865
1 245 809.546
1 246 808.224
1 247 806.896
1 248 805.564
1 249 804.227
1 250 802.886
1 251 801.54
1 252 800.19
1 253 798.835
1 254 797.476
1 255 796.113
1 256 794.746
1 257 793.374
1 258 791.998
1 259 790.618
1 260 789.235
1 261 787.847
1 262 786.455
1 263 785.06
1 264 783.66
1 265 782.257
1 266 780.851
1 267 779.44
1 268 778.027
1 269 776.609
1 270 775.189
1 271 773.765
1 272 772.337
1 273 770.907
1 274 769.473
1 275 768.037
1 276 766.597
1 277 765.154
1 278 763.709
1 279 762.26
1 280 760.809
1 281 759.355
1 282 757.899
1 283 756.44
1 284 754.979
1 285 753.515
1 286 752.049
1 287 750.581
1 288 749.111
1 289 747.638
1 290 746.164
1 291 744.687
1 292 743.209
1 293 741.729
1 294 740.247
1 295 738.764
1 296 737.279
1 297 735.793
1 298 734.305
1 299 732.816
1 300 731.326
1 301 729.835
1 302 728.343
1 303 726.849
1 304 725.355
1 305 723.86
1 306 722.365
1 307 720.868
1 308 719.372
1 309 717.874
1 310 716.377
1 311 714.879
1 312 713.381
1 313 711.883
1 314 710.385
1 315 708.886
1 316 707.389
1 317 705.891
1 318 704.394
1 319 702.897
1 320 701.4
1 321 699.905
1 322 698.41
1 323 696.916
1 324 695.422
1 325 693.93
1 326 692.439
1 327 690.949
1 328 689.46
1 329 687.972
1 330 686.487
1 331 685.002
1 332 683.519
1 333 682.038
1 334 680.559
1 335 679.082
1 336 677.607
1 337 676.134
1 338 674.663
1 339 673.194
1 340 671.728
1 341 670.265
1 342 668.804
1 343 667.346
1 344 665.89
1 345 664.438
1 346 662.988
1 347 661.542
1 348 660.098
1 349 658.658
1 350 657.222
1 351 655.789
1 352 654.359
1 353 652.934
1 354 651.512
1 355 650.093
1 356 648.679
1 357 647.269
1 358 645.863
1 359 644.462
1 360 643.065
1 361 641.672
1 362 640.284
1 363 638.9
1 364 637.521
1 365 636.148
1 366 634.779
1 367 633.415
1 368 632.056
1 369 630.703
1 370 629.355
1 371 628.012
1 372 626.675
1 373 625.344
1 374 624.018
1 375 622.698
1 376 621.385
1 377 620.077
1 378 618.775
1 379 617.48
1 380 616.19
1 381 614.908
1 382 613.632
1 383 612.362
1 384 611.099
1 385 609.843
1 386 608.594
1 387 607.352
1 388 606.116
1 389 604.889
1 390 603.668
1 391 602.455
1 392 601.249
1 393 600.05
1 394 598.86
1 395 597.677
1 396 596.502
1 397 595.334
1 398 594.175
1 399 593.024
1 400 591.881
1 401 590.746
1 402 589.62
1 403 588.502
1 404 587.392
1 405 586.291
1 406 585.199
1 407 584.116
1 408 583.041
1 409 581.976
1 410 580.919
1 411 579.872
1 412 578.834
1 413 577.805
1 414 576.785
1 415 575.775
1 416 574.774
1 417 573.783
1 418 572.802
1 419 571.83
1 420 570.868
1 421 569.916
1 422 568.974
1 423 568.043
1 424 567.121
1 425 566.209
1 426 565.308
1 427 564.417
1 428 563.537
1 429 562.667
1 430 561.807
1 431 560.958
1 432 560.12
1 433 559.293
1 434 558.476
1 435 557.671
1 436 556.876
1 437 556.092
1 438 555.32
1 439 554.558
1 440 553.808
1 441 553.069
1 442 552.342
1 443 551.626
1 444 550.921
1 445 550.228
1 446 549.546
1 447 548.876
1 448 548.218
1 449 547.571
1 450 546.936
1 451 546.313
1 452 545.702
1 453 545.103
1 454 544.516
1 455 543.941
1 456 543.377
1 457 542.827
1 458 542.288
1 459 541.761
1 460 541.247
1 461 540.745
1 462 540.255
1 463 539.778
1 464 539.313
1 465 538.861
1 466 538.421
1 467 537.994
1 468 537.579
1 469 537.177
1 470 536.787
1 471 536.411
1 472 536.046
1 473 535.695
1 474 535.356
1 475 535.031
1 476 534.718
1 477 534.417
1 478 534.13
1 479 533.856
1 480 533.594
1 481 533.346
1 482 533.11
1 483 532.888
1 484 532.678
1 485 532.481
1 486 532.298
1 487 532.127
1 488 531.97
1 489 531.825
1 490 531.694
1 491 531.576
1 492 531.471
1 493 531.379
1 494 531.3
1 495 531.234
1 496 531.182
1 497 531.142
1 498 531.116
1 499 531.103
2 0 961.978
2 1 961.974
2 2 961.966
2 3 961.953
2 4 961.936
2 5 961.915
2 6 961.89
2 7 961.861
2 8 961.828
2 9 961.79
2 10 961.748
2 11 961.702
2 12 961.652
2 13 961.598
2 14 961.539
2 15 961.476
2 16 961.409
2 17 961.338
2 18 961.262
2 19 961.183
2 20 961.099
2 21 961.011
2 22 960.918
2 23 960.822
2 24 960.721
2 25 960.615
2 26 960.506
2 27 960.392
2 28 960.274
2 29 960.152
2 30 960.025
2 31 959.894
2 32 959.759
2 33 959.619
2 34 959.475
2 35 959.327
2 36 959.174
2 37 959.017
2 38 958.856
2 39 958.69
2 40 958.52
2 41 958.345
2 42 958.166
2 43 957.982
2 44 957.794
2 45 957.602
2 46 957.405
2 47 957.204
2 48 956.998
2 49 956.787
2 50 956.572
2 51 956.353
2 52 956.129
2 53 955.9
2 54 955.667
2 55 955.429
2 56 955.186
2 57 954.939
2 58 954.688
2 59 954.431
2 60 954.17
2 61 953.904
2 62 953.634
2 63 953.359
2 64 953.079
2 65 952.794
2 66 952.505
2 67 952.21
2 68 951.911
2 69 951.607
2 70 951.299
2 71 950.985
2 72 950.667
2 73 950.343
2 74 950.015
2 75 949.682
2 76 949.344
2 77 949
2 78 948.652
2 79 948.299
2 80 947.941
2 81 947.578
2 82 947.21
2 83 946.836
2 84 946.458
2 85 946.074
2 86 945.686
2 87 945.292
2 88 944.893
2 89 944.489
2 90 944.08
2 91 943.665
2 92 943.245
2 93 942.82
2 94 942.39
2 95 941.954
2 96 941.513
2 97 941.067
2 98 940.615
2 99 940.158
2 100 939.695
2 101 939.227
2 102 938.754
2 103 938.275
2 104 937.791
2 105 937.301
2 106 936.806
2 107 936.305
2 108 935.799
2 109 935.287
2 110 934.769
2 111 934.246
2 112 933.717
2 113 933.183
2 114 932.643
2 115 932.097
2 116 931.546
2 117 930.989
2 118 930.426
2 119 929.857
2 120 929.283
2 121 928.703
2 122 928.117
2 123 927.525
2 124 926.927
2 125 926.324
2 126 925.714
2 127 925.099
2 128 924.478
2 129 923.851
2 130 923.218
2 131 922.579
2 132 921.934
2 133 921.283
2 134 920.626
2 135 919.964
2 136 919.295
2 137 918.62
2 138 917.939
2 139 917.252
2 140 916.559
2 141 915.859
2 142 915.154
2 143 914.443
2 144 913.725
2 145 913.001
2 146 912.271
2 147 911.535
2 148 910.793
2 149 910.045
2 150 909.29
2 151 908.53
2 152 907.763
2 153 906.989
2 154 906.21
2 155 905.424
2 156 904.632
2 157 903.834
2 158 903.03
2 159 902.219
2 160 901.402
2 161 900.579
2 162 899.749
2 163 898.913
2 164 898.071
2 165 897.223
2 166 896.368
2 167 895.507
2 168 894.639
2 169 893.766
2 170 892.886
2 171 891.999
2 172 891.107
2 173 890.208
2 174 889.303
2 175 888.391
2 176 887.473
2 177 886.549
2 178 885.618
2 179 884.681
2 180 883.738
2 181 882.789
2 182 881.833
2 183 880.871
2 184 879.903
2 185 878.928
2 186 877.947
2 187 876.96
2 188 875.966
2 189 874.966
2 190 873.96
2 191 872.948
2 192 871.93
2 193 870.905
2 194 869.874
2 195 868.837
2 196 867.794
2 197 866.744
2 198 865.689
2 199 864.627
2 200 863.559
2 201 862.485
2 202 861.405
2 203 860.319
2 204 859.227
2 205 858.128
2 206 857.024
2 207 855.913
2 208 854.797
2 209 853.675
2 210 852.546
2 211 851.412
2 212 850.272
2 213 849.126
2 214 847.974
2 215 846.817
2 216 845.653
2 217 844.484
2 218 843.309
2 219 842.128
2 220 840.941
2 221 839.749
2 222 838.551
2 223 837.348
2 224 836.139
2 225 834.924
2 226 833.704
2 227 832.479
2 228 831.248
2 229 830.011
2 230 828.769
2 231 827.522
2 232 826.269
2 233 825.012
2 234 823.749
2 235 822.48
2 236 821.207
2 237 819.928
2 238 818.645
2 239 817.356
2 240 816.062
2 241 814.764
2 242 813.46
2 243 812.152
2 244 810.838
2 245 809.52
2 246 808.198
2 247 806.87
2 248 805.538
2 249 804.201
2 250 802.86
2 251 801.514
2 252 800.164
2 253 798.81
2 254 797.451
2 255 796.088
2 256 794.72
2 257 793.349
2 258 791.973
2 259 790.593
2 260 789.209
2 261 787.822
2 262 786.43
2 263 785.035
2 264 783.635
2 265 782.233
2 266 780.826
2 267 779.416
2 268 778.002
2 269 776.585
2 270 775.164
2 271 773.74
2 272 772.313
2 273 770.883
2 274 769.449
2 275 768.013
2 276 766.573
2 277 765.13
2 278 763.685
2 279 762.237
2 280 760.785
2 281 759.332
2 282 757.876
2 283 756.417
2 284 754.956
2 285 753.492
2 286 752.026
2 287 750.558
2 288 749.088
2 289 747.615
2 290 746.141
2 291 744.664
2 292 743.186
2 293 741.706
2 294 740.225
2 295 738.742
2 296 737.257
2 297 735.771
2 298 734.283
2 299 732.794
2 300 731.304
2 301 729.813
2 302 728.321
2 303 726.828
2 304 725.333
2 305 723.839
2 306 722.343
2 307 720.847
2 308 719.35
2 309 717.853
2 310 716.355
2 311 714.858
2 312 713.36
2 313 711.862
2 314 710.364
2 315 708.866
2 316 707.368
2 317 705.87
2 318 704.373
2 319 702.876
2 320 701.38
2 321 699.884
2 322 698.389
2 323 696.895
2 324 695.402
2 325 693.91
2 326 692.419
2 327 690.929
2 328 689.44
2 329 687.953
2 330 686.467
2 331 684.982
2 332 683.5
2 333 682.019
2 334 680.54
2 335 679.063
2 336 677.588
2 337 676.115
2 338 674.644
2 339 673.175
2 340 671.709
2 341 670.246
2 342 668.785
2 343 667.327
2 344 665.871
2 345 664.419
2 346 662.969
2 347 661.523
2 348 660.08
2 349 658.64
2 350 657.204
2 351 655.771
2 352 654.341
2 353 652.915
2 354 651.494
2 355 650.075
2 356 648.661
2 357 647.251
2 358 645.846
2 359 644.444
2 360 643.047
2 361 641.654
2 362 640.266
2 363 638.883
2 364 637.504
2 365 636.13
2 366 634.762
2 367 633.398
2 368 632.039
2 369 630.686
2 370 629.338
2 371 627.995
2 372 626.658
2 373 625.327
2 374 624.002
2 375 622.682
2 376 621.368
2 377 620.06
2 378 618.759
2 379 617.463
2 380 616.174
2 381 614.892
2 382 613.615
2 383 612.346
2 384 611.083
2 385 609.827
2 386 608.578
2 387 607.336
2 388 606.101
2 389 604.873
2 390 603.652
2 391 602.439
2 392 601.233
2 393 600.035
2 394 598.844
2 395 597.661
2 396 596.486
2 397 595.319
2 398 594.16
2 399 593.009
2 400 591.866
2 401 590.731
2 402 589.605
2 403 588.487
2 404 587.377
2 405 586.277
2 406 585.185
2 407 584.101
2 408 583.027
2 409 581.961
2 410 580.905
2 411 579.857
2 412 578.819
2 413 577.79
2 414 576.771
2 415 575.761
2 416 574.76
2 417 573.769
2 418 572.788
2 419 571.816
2 420 570.854
2 421 569.902
2 422 568.961
2 423 568.029
2 424 567.107
2 425 566.196
2 426 565.294
2 427 564.403
2 428 563.523
2 429 562.653
2 430 561.794
2 431 560.945
2 432 560.107
2 433 559.279
2 434 558.463
2 435 557.657
2 436 556.863
2 437 556.079
2 438 555.307
2 439 554.545
2 440 553.795
2 441 553.056
2 442 552.329
2 443 551.613
2 444 550.908
2 445 550.215
2 446 549.533
2 447 548.863
2 448 548.205
2 449 547.558
2 450 546.923
2 451 546.3
2 452 545.689
2 453 545.09
2 454 544.503
2 455 543.928
2 456 543.365
2 457 542.814
2 458 542.275
2 459 541.749
2 460 541.235
2 461 540.733
2 462 540.243
2 463 539.766
2 464 539.301
2 465 538.849
2 466 538.409
2 467 537.982
2 468 537.567
2 469 537.165
2 470 536.775
2 471 536.398
2 472 536.034
2 473 535.683
2 474 535.344
2 475 535.019
2 476 534.706
2 477 534.405
2 478 534.118
2 479 533.844
2 480 533.582
2 481 533.334
2 482 533.098
2 483 532.876
2 484 532.666
2 485 532.469
2 486 532.286
2 487 532.115
2 488 531.958
2 489 531.814
2 490 531.682
2 491 531.564
2 492 531.459
2 493 531.367
2 494 531.288
2 495 531.223
2 496 531.17
2 497 531.131
2 498 531.104
2 499 531.091
3 0 961.927
3 1 961.923
3 2 961.915
3 3 961.902
3 4 961.885
3 5 961.864
3 6 961.839
3 7 961.81
3 8 961.777
3 9 961.739
3 10 961.697
3 11 961.651
3 12 961.601
3 13 961.547
3 14 961.488
3 15 961.425
3 16 961.358
3 17 961.287
3 18 961.212
3 19 961.132
3 20 961.048
3 21 960.96
3 22 960.867
3 23 960.771
3 24 960.67
3 25 960.565
3 26 960.455
3 27 960.341
3 28 960.223
3 29 960.101
3 30 959.974
3 31 959.843
3 32 959.708
3 33 959.568
3 34 959.424
3 35 959.276
3 36 959.124
3 37 958.966
3 38 958.805
3 39 958.639
3 40 958.469
3 41 958.294
3 42 958.115
3 43 957.932
3 44 957.744
3 45 957.551
3 46 957.354
3 47 957.153
3 48 956.947
3 49 956.737
3 50 956.522
3 51 956.302
3 52 956.078
3 53 955.85
3 54 955.616
3 55 955.378
3 56 955.136
3 57 954.889
3 58 954.637
3 59 954.381
3 60 954.12
3 61 953.854
3 62 953.584
3 63 953.308
3 64 953.029
3 65 952.744
3 66 952.454
3 67 952.16
3 68 951.861
3 69 951.557
3 70 951.249
3 71 950.935
3 72 950.617
3 73 950.293
3 74 949.965
3 75 949.632
3 76 949.294
3 77 948.95
3 78 948.602
3 79 948.249
3 80 947.891
3 81 947.528
3 82 947.16
3 83 946.787
3 84 946.408
3 85 946.025
3 86 945.636
3 87 945.242
3 88 944.843
3 89 944.439
3 90 944.03
3 91 943.615
3 92 943.196
3 93 942.771
3 94 942.34
3 95 941.905
3 96 941.464
3 97 941.017
3 98 940.566
3 99 940.109
3 100 939.646
3 101 939.178
3 102 938.705
3 103 938.226
3 104 937.742
3 105 937.252
3 106 936.757
3 107 936.256
3 108 935.75
3 109 935.238
3 110 934.72
3 111 934.197
3 112 933.669
3 113 933.134
3 114 932.594
3 115 932.049
3 116 931.497
3 117 930.94
3 118 930.377
3 119 929.809
3 120 929.234
3 121 928.654
3 122 928.068
3 123 927.477
3 124 926.879
3 125 926.276
3 126 925.666
3 127 925.051
3 128 924.43
3 129 923.803
3 130 923.17
3 131 922.531
3 132 921.886
3 133 921.236
3 134 920.579
3 135 919.916
3 136 919.247
3 137 918.572
3 138 917.891
3 139 917.204
3 140 916.511
3 141 915.812
3 142 915.107
3 143 914.395
3 144 913.678
3 145 912.954
3 146 912.224
3 147 911.488
3 148 910.746
3 149 909.998
3 150 909.243
3 151 908.483
3 152 907.716
3 153 906.943
3 154 906.163
3 155 905.378
3 156 904.586
3 157 903.788
3 158 902.983
3 159 902.173
3 160 901.356
3 161 900.532
3 162 899.703
3 163 898.867
3 164 898.025
3 165 897.177
3 166 896.322
3 167 895.461
3 168 894.594
3 169 893.72
3 170 892.84
3 171 891.954
3 172 891.061
3 173 890.162
3 174 889.257
3 175 888.346
3 176 887.428
3 177 886.504
3 178 885.573
3 179 884.636
3 180 883.693
3 181 882.744
3 182 881.788
3 183 880.826
3 184 879.858
3 185 878.883
3 186 877.902
3 187 876.915
3 188 875.922
3 189 874.922
3 190 873.916
3 191 872.904
3 192 871.886
3 193 870.861
3 194 869.83
3 195 868.793
3 196 867.75
3 197 866.701
3 198 865.645
3 199 864.584
3 200 863.516
3 201 862.442
3 202 861.362
3 203 860.276
3 204 859.183
3 205 858.085
3 206 856.981
3 207 855.871
3 208 854.754
3 209 853.632
3 210 852.504
3 211 851.37
3 212 850.23
3 213 849.084
3 214 847.932
3 215 846.774
3 216 845.611
3 217 844.442
3 218 843.267
3 219 842.086
3 220 840.9
3 221 839.708
3 222 838.51
3 223 837.307
3 224 836.098
3 225 834.883
3 226 833.663
3 227 832.438
3 228 831.207
3 229 829.97
3 230 828.728
3 231 827.481
3 232 826.229
3 233 824.971
3 234 823.708
3 235 822.44
3 236 821.167
3 237 819.888
3 238 818.605
3 239 817.316
3 240 816.023
3 241 814.724
3 242 813.421
3 243 812.112
3 244 810.799
3 245 809.481
3 246 808.158
3 247 806.831
3 248 805.499
3 249 804.162
3 250 802.821
3 251 801.476
3 252 800.126
3 253 798.771
3 254 797.413
3 255 796.049
3 256 794.682
3 257 793.311
3 258 791.935
3 259 790.555
3 260 789.172
3 261 787.784
3 262 786.393
3 263 784.997
3 264 783.598
3 265 782.195
3 266 780.789
3 267 779.379
3 268 777.965
3 269 776.548
3 270 775.128
3 271 773.704
3 272 772.277
3 273 770.846
3 274 769.413
3 275 767.976
3 276 766.537
3 277 765.094
3 278 763.649
3 279 762.201
3 280 760.75
3 281 759.296
3 282 757.84
3 283 756.382
3 284 754.92
3 285 753.457
3 286 751.991
3 287 750.523
3 288 749.053
3 289 747.581
3 290 746.106
3 291 744.63
3 292 743.152
3 293 741.672
3 294 740.191
3 295 738.708
3 296 737.223
3 297 735.737
3 298 734.25
3 299 732.761
3 300 731.271
3 301 729.78
3 302 728.288
3 303 726.795
3 304 725.301
3 305 723.806
3 306 722.311
3 307 720.814
3 308 719.318
3 309 717.821
3 310 716.323
3 311 714.826
3 312 713.328
3 313 711.83
3 314 710.332
3 315 708.834
3 316 707.336
3 317 705.839
3 318 704.342
3 319 702.845
3 320 701.349
3 321 699.853
3 322 698.359
3 323 696.865
3 324 695.372
3 325 693.879
3 326 692.388
3 327 690.899
3 328 689.41
3 329 687.923
3 330 686.437
3 331 684.953
3 332 683.47
3 333 681.989
3 334 680.51
3 335 679.033
3 336 677.558
3 337 676.086
3 338 674.615
3 339 673.147
3 340 671.681
3 341 670.217
3 342 668.757
3 343 667.298
3 344 665.843
3 345 664.391
3 346 662.942
3 347 661.495
3 348 660.052
3 349 658.612
3 350 657.176
3 351 655.743
3 352 654.314
3 353 652.888
3 354 651.466
3 355 650.049
3 356 648.635
3 357 647.225
3 358 645.819
3 359 644.418
3 360 643.021
3 361 641.628
3 362 640.24
3 363 638.857
3 364 637.478
3 365 636.104
3 366 634.736
3 367 633.372
3 368 632.014
3 369 630.66
3 370 629.313
3 371 627.97
3 372 626.633
3 373 625.302
3 374 623.977
3 375 622.657
3 376 621.343
3 377 620.036
3 378 618.734
3 379 617.439
3 380 616.15
3 381 614.867
3 382 613.591
3 383 612.322
3 384 611.059
3 385 609.803
3 386 608.554
3 387 607.312
3 388 606.077
3 389 604.849
3 390 603.629
3 391 602.416
3 392 601.21
3 393 600.012
3 394 598.821
3 395 597.638
3 396 596.463
3 397 595.296
3 398 594.137
3 399 592.986
3 400 591.843
3 401 590.709
3 402 589.582
3 403 588.465
3 404 587.355
3 405 586.255
3 406 585.163
3 407 584.079
3 408 583.005
3 409 581.94
3 410 580.883
3 411 579.836
3 412 578.798
3 413 577.769
3 414 576.749
3 415 575.739
3 416 574.739
3 417 573.748
3 418 572.767
3 419 571.795
3 420 570.833
3 421 569.882
3 422 568.94
3 423 568.008
3 424 567.087
3 425 566.175
3 426 565.274
3 427 564.383
3 428 563.503
3 429 562.633
3 430 561.774
3 431 560.925
3 432 560.087
3 433 559.26
3 434 558.443
3 435 557.638
3 436 556.843
3 437 556.059
3 438 555.287
3 439 554.526
3 440 553.776
3 441 553.037
3 442 552.309
3 443 551.593
3 444 550.889
3 445 550.195
3 446 549.514
3 447 548.844
3 448 548.186
3 449 547.539
3 450 546.904
3 451 546.282
3 452 545.671
3 453 545.071
3 454 544.484
3 455 543.909
3 456 543.346
3 457 542.795
3 458 542.257
3 459 541.73
3 460 541.216
3 461 540.714
3 462 540.224
3 463 539.747
3 464 539.283
3 465 538.83
3 466 538.39
3 467 537.963
3 468 537.549
3 469 537.146
3 470 536.757
3 471 536.38
3 472 536.016
3 473 535.665
3 474 535.326
3 475 535
3 476 534.687
3 477 534.387
3 478 534.1
3 479 533.826
3 480 533.564
3 481 533.316
3 482 533.08
3 483 532.858
3 484 532.648
3 485 532.452
3 486 532.268
3 487 532.098
3 488 531.94
3 489 531.796
3 490 531.664
3 491 531.546
3 492 531.441
3 493 531.349
3 494 531.27
3 495 531.205
3 496 531.152
3 497 531.113
3 498 531.086
3 499 531.073
4 0 961.859
4 1 961.855
4 2 961.847
4 3 961.834
4 4 961.817
4 5 961.797
4 6 961.771
4 7 961.742
4 8 961.709
4 9 961.671
4 10 961.629
4 11 961.583
4 12 961.533
4 13 961.479
4 14 961.42
4 15 961.357
4 16 961.29
4 17 961.219
4 18 961.144
4 19 961.064
4 20 960.98
4 21 960.892
4 22 960.799
4 23 960.703
4 24 960.602
4 25 960.497
4 26 960.387
4 27 960.274
4 28 960.155
4 29 960.033
4 30 959.907
4 31 959.776
4 32 959.64
4 33 959.501
4 34 959.357
4 35 959.209
4 36 959.056
4 37 958.899
4 38 958.737
4 39 958.572
4 40 958.401
4 41 958.227
4 42 958.048
4 43 957.864
4 44 957.676
4 45 957.484
4 46 957.287
4 47 957.086
4 48 956.88
4 49 956.669
4 50 956.454
4 51 956.235
4 52 956.011
4 53 955.782
4 54 955.549
4 55 955.311
4 56 955.069
4 57 954.822
4 58 954.57
4 59 954.314
4 60 954.053
4 61 953.787
4 62 953.517
4 63 953.241
4 64 952.962
4 65 952.677
4 66 952.387
4 67 952.093
4 68 951.794
4 69 951.49
4 70 951.182
4 71 950.868
4 72 950.55
4 73 950.226
4 74 949.898
4 75 949.565
4 76 949.227
4 77 948.884
4 78 948.536
4 79 948.183
4 80 947.825
4 81 947.462
4 82 947.093
4 83 946.72
4 84 946.342
4 85 945.958
4 86 945.57
4 87 945.176
4 88 944.777
4 89 944.373
4 90 943.964
4 91 943.549
4 92 943.13
4 93 942.705
4 94 942.274
4 95 941.839
4 96 941.398
4 97 940.951
4 98 940.5
4 99 940.043
4 100 939.58
4 101 939.113
4 102 938.639
4 103 938.161
4 104 937.676
4 105 937.187
4 106 936.692
4 107 936.191
4 108 935.685
4 109 935.173
4 110 934.655
4 111 934.132
4 112 933.604
4 113 933.069
4 114 932.529
4 115 931.984
4 116 931.432
4 117 930.875
4 118 930.313
4 119 929.744
4 120 929.17
4 121 928.59
4 122 928.004
4 123 927.412
4 124 926.815
4 125 926.211
4 126 925.602
4 127 924.987
4 128 924.366
4 129 923.739
4 130 923.106
4 131 922.467
4 132 921.823
4 133 921.172
4 134 920.515
4 135 919.852
4 136 919.183
4 137 918.509
4 138 917.828
4 139 917.141
4 140 916.448
4 141 915.749
4 142 915.044
4 143 914.332
4 144 913.615
4 145 912.891
4 146 912.161
4 147 911.426
4 148 910.684
4 149 909.935
4 150 909.181
4 151 908.42
4 152 907.653
4 153 906.88
4 154 906.101
4 155 905.315
4 156 904.524
4 157 903.726
4 158 902.921
4 159 902.111
4 160 901.294
4 161 900.471
4 162 899.641
4 163 898.806
4 164 897.964
4 165 897.115
4 166 896.261
4 167 895.4
4 168 894.533
4 169 893.659
4 170 892.779
4 171 891.893
4 172 891.001
4 173 890.102
4 174 889.197
4 175 888.285
4 176 887.368
4 177 886.443
4 178 885.513
4 179 884.576
4 180 883.633
4 181 882.684
4 182 881.728
4 183 880.767
4 184 879.798
4 185 878.824
4 186 877.843
4 187 876.856
4 188 875.863
4 189 874.863
4 190 873.857